<?xml version="1.0" encoding="UTF-8"?>

<!-- generated on 2026-05-26T13:56:53.133486+09:00 by Eclipse SUMO GUI 1.26.0
<sumoConfiguration xmlns:xsi="http://www.w3.org/2001/XMLSchema-instance" xsi:noNamespaceSchemaLocation="http://sumo.dlr.de/xsd/sumoConfiguration.xsd">

    <input>
        <net-file value="data/net.net.xml"/>
        <route-files value="data/routes.xml"/>
    </input>

    <output>
        <summary-output value="d:\Desktop\新建文件夹\car\manhattan\data\summary.xml"/>
        <tripinfo-output value="d:\Desktop\新建文件夹\car\manhattan\data\tripinfo.xml"/>
        <vehroute-output value="d:\Desktop\新建文件夹\car\manhattan\data\vehroutes.xml"/>
        <vehroute-output.exit-times value="true"/>
        <vehroute-output.write-unfinished value="true"/>
    </output>

    <time>
        <begin value="0"/>
        <end value="7200"/>
    </time>

    <processing>
        <time-to-teleport value="300"/>
    </processing>

    <report>
        <verbose value="true"/>
        <no-warnings value="false"/>
        <log value="data/sumo.log"/>
        <duration-log.statistics value="true"/>
    </report>

    <traci_server>
        <remote-port value="50360"/>
    </traci_server>

    <gui_only>
        <gui-settings-file value="data/manhattan.jtrrcfg"/>
        <quit-on-end value="true"/>
        <start value="true"/>
        <delay value="100"/>
    </gui_only>

</sumoConfiguration>
-->

<tripinfos xmlns:xsi="http://www.w3.org/2001/XMLSchema-instance" xsi:noNamespaceSchemaLocation="http://sumo.dlr.de/xsd/tripinfo_file.xsd">
    <personinfo id="p_faa8f169c1cd" depart="1.00" type="DEFAULT_PEDTYPE@p_faa8f169c1cd" speedFactor="0.98" duration="24.00" waitingTime="0.00" timeLoss="0.00" traveltime="0.00">
        <stop duration="24.00" arrival="25.00" arrivalPos="5.00" actType="waiting"/>
    </personinfo>
    <personinfo id="p_377e22d345f0" depart="1.00" type="DEFAULT_PEDTYPE@p_377e22d345f0" speedFactor="0.96" duration="24.00" waitingTime="0.00" timeLoss="0.00" traveltime="0.00">
        <stop duration="24.00" arrival="25.00" arrivalPos="5.00" actType="waiting"/>
    </personinfo>
    <personinfo id="p_a83e1f6fcc8f" depart="1.00" type="DEFAULT_PEDTYPE@p_a83e1f6fcc8f" speedFactor="1.08" duration="24.00" waitingTime="0.00" timeLoss="0.00" traveltime="0.00">
        <stop duration="24.00" arrival="25.00" arrivalPos="5.00" actType="waiting"/>
    </personinfo>
    <personinfo id="p_6863eda7ce6f" depart="1.00" type="DEFAULT_PEDTYPE@p_6863eda7ce6f" speedFactor="1.08" duration="24.00" waitingTime="0.00" timeLoss="0.00" traveltime="0.00">
        <stop duration="24.00" arrival="25.00" arrivalPos="5.00" actType="waiting"/>
    </personinfo>
    <personinfo id="p_206489b640d3" depart="1.00" type="DEFAULT_PEDTYPE@p_206489b640d3" speedFactor="1.09" duration="24.00" waitingTime="0.00" timeLoss="0.00" traveltime="0.00">
        <stop duration="24.00" arrival="25.00" arrivalPos="5.00" actType="waiting"/>
    </personinfo>
    <personinfo id="p_80a47a806869" depart="1.00" type="DEFAULT_PEDTYPE@p_80a47a806869" speedFactor="1.00" duration="24.00" waitingTime="0.00" timeLoss="0.00" traveltime="0.00">
        <stop duration="24.00" arrival="25.00" arrivalPos="5.00" actType="waiting"/>
    </personinfo>
    <personinfo id="p_6972079d6812" depart="1.00" type="DEFAULT_PEDTYPE@p_6972079d6812" speedFactor="1.17" duration="24.00" waitingTime="0.00" timeLoss="0.00" traveltime="0.00">
        <stop duration="24.00" arrival="25.00" arrivalPos="5.00" actType="waiting"/>
    </personinfo>
    <personinfo id="p_0890ba255705" depart="1.00" type="DEFAULT_PEDTYPE@p_0890ba255705" speedFactor="0.95" duration="24.00" waitingTime="0.00" timeLoss="0.00" traveltime="0.00">
        <stop duration="24.00" arrival="25.00" arrivalPos="5.00" actType="waiting"/>
    </personinfo>
    <personinfo id="p_37d650715522" depart="1.00" type="DEFAULT_PEDTYPE@p_37d650715522" speedFactor="1.07" duration="24.00" waitingTime="0.00" timeLoss="0.00" traveltime="0.00">
        <stop duration="24.00" arrival="25.00" arrivalPos="5.00" actType="waiting"/>
    </personinfo>
    <personinfo id="p_531637b548c7" depart="1.00" type="DEFAULT_PEDTYPE@p_531637b548c7" speedFactor="0.97" duration="24.00" waitingTime="0.00" timeLoss="0.00" traveltime="0.00">
        <stop duration="24.00" arrival="25.00" arrivalPos="5.00" actType="waiting"/>
    </personinfo>
    <personinfo id="p_ee64d921f27d" depart="1.00" type="DEFAULT_PEDTYPE@p_ee64d921f27d" speedFactor="0.94" duration="24.00" waitingTime="0.00" timeLoss="0.00" traveltime="0.00">
        <stop duration="24.00" arrival="25.00" arrivalPos="5.00" actType="waiting"/>
    </personinfo>
    <personinfo id="p_4ea809b44aef" depart="1.00" type="DEFAULT_PEDTYPE@p_4ea809b44aef" speedFactor="0.97" duration="24.00" waitingTime="0.00" timeLoss="0.00" traveltime="0.00">
        <stop duration="24.00" arrival="25.00" arrivalPos="5.00" actType="waiting"/>
    </personinfo>
    <personinfo id="p_db0b95285497" depart="1.00" type="DEFAULT_PEDTYPE@p_db0b95285497" speedFactor="0.94" duration="24.00" waitingTime="0.00" timeLoss="0.00" traveltime="0.00">
        <stop duration="24.00" arrival="25.00" arrivalPos="5.00" actType="waiting"/>
    </personinfo>
    <personinfo id="p_8dac9b76ade0" depart="1.00" type="DEFAULT_PEDTYPE@p_8dac9b76ade0" speedFactor="0.89" duration="24.00" waitingTime="0.00" timeLoss="0.00" traveltime="0.00">
        <stop duration="24.00" arrival="25.00" arrivalPos="5.00" actType="waiting"/>
    </personinfo>
    <personinfo id="p_c2e2f4725ee3" depart="1.00" type="DEFAULT_PEDTYPE@p_c2e2f4725ee3" speedFactor="1.16" duration="24.00" waitingTime="0.00" timeLoss="0.00" traveltime="0.00">
        <stop duration="24.00" arrival="25.00" arrivalPos="5.00" actType="waiting"/>
    </personinfo>
    <personinfo id="p_e841769ad454" depart="1.00" type="DEFAULT_PEDTYPE@p_e841769ad454" speedFactor="0.90" duration="24.00" waitingTime="0.00" timeLoss="0.00" traveltime="0.00">
        <stop duration="24.00" arrival="25.00" arrivalPos="5.00" actType="waiting"/>
    </personinfo>
    <personinfo id="p_1e3bf94bedfb" depart="1.00" type="DEFAULT_PEDTYPE@p_1e3bf94bedfb" speedFactor="0.95" duration="24.00" waitingTime="0.00" timeLoss="0.00" traveltime="0.00">
        <stop duration="24.00" arrival="25.00" arrivalPos="5.00" actType="waiting"/>
    </personinfo>
    <personinfo id="p_c194e01a8ecd" depart="1.00" type="DEFAULT_PEDTYPE@p_c194e01a8ecd" speedFactor="1.19" duration="24.00" waitingTime="0.00" timeLoss="0.00" traveltime="0.00">
        <stop duration="24.00" arrival="25.00" arrivalPos="5.00" actType="waiting"/>
    </personinfo>
    <personinfo id="p_c08353b8aab6" depart="1.00" type="DEFAULT_PEDTYPE@p_c08353b8aab6" speedFactor="0.99" duration="24.00" waitingTime="0.00" timeLoss="0.00" traveltime="0.00">
        <stop duration="24.00" arrival="25.00" arrivalPos="5.00" actType="waiting"/>
    </personinfo>
    <personinfo id="p_1ece57df8d8f" depart="1.00" type="DEFAULT_PEDTYPE@p_1ece57df8d8f" speedFactor="0.94" duration="24.00" waitingTime="0.00" timeLoss="0.00" traveltime="0.00">
        <stop duration="24.00" arrival="25.00" arrivalPos="5.00" actType="waiting"/>
    </personinfo>
    <personinfo id="p_daca5bc886db" depart="1.00" type="DEFAULT_PEDTYPE@p_daca5bc886db" speedFactor="1.01" duration="44.00" waitingTime="0.00" timeLoss="0.00" traveltime="0.00">
        <stop duration="44.00" arrival="45.00" arrivalPos="5.00" actType="waiting"/>
    </personinfo>
    <personinfo id="p_d1550ec3d986" depart="1.00" type="DEFAULT_PEDTYPE@p_d1550ec3d986" speedFactor="0.87" duration="44.00" waitingTime="0.00" timeLoss="0.00" traveltime="0.00">
        <stop duration="44.00" arrival="45.00" arrivalPos="5.00" actType="waiting"/>
    </personinfo>
    <personinfo id="p_a74dd870e97d" depart="1.00" type="DEFAULT_PEDTYPE@p_a74dd870e97d" speedFactor="1.01" duration="44.00" waitingTime="0.00" timeLoss="0.00" traveltime="0.00">
        <stop duration="44.00" arrival="45.00" arrivalPos="5.00" actType="waiting"/>
    </personinfo>
    <personinfo id="p_1be760302434" depart="1.00" type="DEFAULT_PEDTYPE@p_1be760302434" speedFactor="1.08" duration="44.00" waitingTime="0.00" timeLoss="0.00" traveltime="0.00">
        <stop duration="44.00" arrival="45.00" arrivalPos="5.00" actType="waiting"/>
    </personinfo>
    <personinfo id="p_3e9b664c4942" depart="1.00" type="DEFAULT_PEDTYPE@p_3e9b664c4942" speedFactor="0.96" duration="44.00" waitingTime="0.00" timeLoss="0.00" traveltime="0.00">
        <stop duration="44.00" arrival="45.00" arrivalPos="5.00" actType="waiting"/>
    </personinfo>
    <personinfo id="p_43c95a4e1519" depart="1.00" type="DEFAULT_PEDTYPE@p_43c95a4e1519" speedFactor="1.10" duration="44.00" waitingTime="0.00" timeLoss="0.00" traveltime="0.00">
        <stop duration="44.00" arrival="45.00" arrivalPos="5.00" actType="waiting"/>
    </personinfo>
    <personinfo id="p_d16326570b3b" depart="1.00" type="DEFAULT_PEDTYPE@p_d16326570b3b" speedFactor="1.00" duration="44.00" waitingTime="0.00" timeLoss="0.00" traveltime="0.00">
        <stop duration="44.00" arrival="45.00" arrivalPos="5.00" actType="waiting"/>
    </personinfo>
    <personinfo id="p_cada43525daf" depart="1.00" type="DEFAULT_PEDTYPE@p_cada43525daf" speedFactor="1.03" duration="44.00" waitingTime="0.00" timeLoss="0.00" traveltime="0.00">
        <stop duration="44.00" arrival="45.00" arrivalPos="5.00" actType="waiting"/>
    </personinfo>
    <personinfo id="p_8857d3897efb" depart="1.00" type="DEFAULT_PEDTYPE@p_8857d3897efb" speedFactor="0.91" duration="44.00" waitingTime="0.00" timeLoss="0.00" traveltime="0.00">
        <stop duration="44.00" arrival="45.00" arrivalPos="5.00" actType="waiting"/>
    </personinfo>
    <personinfo id="p_32fc847d4de2" depart="1.00" type="DEFAULT_PEDTYPE@p_32fc847d4de2" speedFactor="0.86" duration="44.00" waitingTime="0.00" timeLoss="0.00" traveltime="0.00">
        <stop duration="44.00" arrival="45.00" arrivalPos="5.00" actType="waiting"/>
    </personinfo>
    <personinfo id="p_7b749989fd4f" depart="1.00" type="DEFAULT_PEDTYPE@p_7b749989fd4f" speedFactor="0.99" duration="44.00" waitingTime="0.00" timeLoss="0.00" traveltime="0.00">
        <stop duration="44.00" arrival="45.00" arrivalPos="5.00" actType="waiting"/>
    </personinfo>
    <personinfo id="p_05ea961d6095" depart="1.00" type="DEFAULT_PEDTYPE@p_05ea961d6095" speedFactor="1.14" duration="44.00" waitingTime="0.00" timeLoss="0.00" traveltime="0.00">
        <stop duration="44.00" arrival="45.00" arrivalPos="5.00" actType="waiting"/>
    </personinfo>
    <personinfo id="p_60e9e7647215" depart="1.00" type="DEFAULT_PEDTYPE@p_60e9e7647215" speedFactor="1.11" duration="44.00" waitingTime="0.00" timeLoss="0.00" traveltime="0.00">
        <stop duration="44.00" arrival="45.00" arrivalPos="5.00" actType="waiting"/>
    </personinfo>
    <personinfo id="p_e08e3da1b6e6" depart="1.00" type="DEFAULT_PEDTYPE@p_e08e3da1b6e6" speedFactor="1.06" duration="44.00" waitingTime="0.00" timeLoss="0.00" traveltime="0.00">
        <stop duration="44.00" arrival="45.00" arrivalPos="5.00" actType="waiting"/>
    </personinfo>
    <personinfo id="p_e1f2db81f72d" depart="1.00" type="DEFAULT_PEDTYPE@p_e1f2db81f72d" speedFactor="0.95" duration="44.00" waitingTime="0.00" timeLoss="0.00" traveltime="0.00">
        <stop duration="44.00" arrival="45.00" arrivalPos="5.00" actType="waiting"/>
    </personinfo>
    <personinfo id="p_3e79df25aa16" depart="1.00" type="DEFAULT_PEDTYPE@p_3e79df25aa16" speedFactor="0.99" duration="44.00" waitingTime="0.00" timeLoss="0.00" traveltime="0.00">
        <stop duration="44.00" arrival="45.00" arrivalPos="5.00" actType="waiting"/>
    </personinfo>
    <personinfo id="p_223062efe9ca" depart="1.00" type="DEFAULT_PEDTYPE@p_223062efe9ca" speedFactor="1.05" duration="44.00" waitingTime="0.00" timeLoss="0.00" traveltime="0.00">
        <stop duration="44.00" arrival="45.00" arrivalPos="5.00" actType="waiting"/>
    </personinfo>
    <personinfo id="p_2959e18c6d96" depart="1.00" type="DEFAULT_PEDTYPE@p_2959e18c6d96" speedFactor="0.78" duration="44.00" waitingTime="0.00" timeLoss="0.00" traveltime="0.00">
        <stop duration="44.00" arrival="45.00" arrivalPos="5.00" actType="waiting"/>
    </personinfo>
    <personinfo id="p_dadf03dcb5ad" depart="1.00" type="DEFAULT_PEDTYPE@p_dadf03dcb5ad" speedFactor="0.91" duration="44.00" waitingTime="0.00" timeLoss="0.00" traveltime="0.00">
        <stop duration="44.00" arrival="45.00" arrivalPos="5.00" actType="waiting"/>
    </personinfo>
    <personinfo id="p_a018bc694c62" depart="1.00" type="DEFAULT_PEDTYPE@p_a018bc694c62" speedFactor="0.96" duration="44.00" waitingTime="0.00" timeLoss="0.00" traveltime="0.00">
        <stop duration="44.00" arrival="45.00" arrivalPos="5.00" actType="waiting"/>
    </personinfo>
    <personinfo id="p_3fa68dab9830" depart="1.00" type="DEFAULT_PEDTYPE@p_3fa68dab9830" speedFactor="1.03" duration="64.00" waitingTime="0.00" timeLoss="0.00" traveltime="0.00">
        <stop duration="64.00" arrival="65.00" arrivalPos="5.00" actType="waiting"/>
    </personinfo>
    <personinfo id="p_15cb12fe7b85" depart="1.00" type="DEFAULT_PEDTYPE@p_15cb12fe7b85" speedFactor="1.06" duration="64.00" waitingTime="0.00" timeLoss="0.00" traveltime="0.00">
        <stop duration="64.00" arrival="65.00" arrivalPos="5.00" actType="waiting"/>
    </personinfo>
    <personinfo id="p_6fc8df901567" depart="1.00" type="DEFAULT_PEDTYPE@p_6fc8df901567" speedFactor="0.95" duration="64.00" waitingTime="0.00" timeLoss="0.00" traveltime="0.00">
        <stop duration="64.00" arrival="65.00" arrivalPos="5.00" actType="waiting"/>
    </personinfo>
    <personinfo id="p_53c4bae46bb2" depart="1.00" type="DEFAULT_PEDTYPE@p_53c4bae46bb2" speedFactor="1.07" duration="64.00" waitingTime="0.00" timeLoss="0.00" traveltime="0.00">
        <stop duration="64.00" arrival="65.00" arrivalPos="5.00" actType="waiting"/>
    </personinfo>
    <personinfo id="p_c0b628d0ae5f" depart="1.00" type="DEFAULT_PEDTYPE@p_c0b628d0ae5f" speedFactor="0.88" duration="64.00" waitingTime="0.00" timeLoss="0.00" traveltime="0.00">
        <stop duration="64.00" arrival="65.00" arrivalPos="5.00" actType="waiting"/>
    </personinfo>
    <personinfo id="p_145dc0e29ee5" depart="1.00" type="DEFAULT_PEDTYPE@p_145dc0e29ee5" speedFactor="1.07" duration="64.00" waitingTime="0.00" timeLoss="0.00" traveltime="0.00">
        <stop duration="64.00" arrival="65.00" arrivalPos="5.00" actType="waiting"/>
    </personinfo>
    <personinfo id="p_854ce1d3e67c" depart="1.00" type="DEFAULT_PEDTYPE@p_854ce1d3e67c" speedFactor="0.94" duration="64.00" waitingTime="0.00" timeLoss="0.00" traveltime="0.00">
        <stop duration="64.00" arrival="65.00" arrivalPos="5.00" actType="waiting"/>
    </personinfo>
    <personinfo id="p_76070ce979e2" depart="1.00" type="DEFAULT_PEDTYPE@p_76070ce979e2" speedFactor="1.02" duration="64.00" waitingTime="0.00" timeLoss="0.00" traveltime="0.00">
        <stop duration="64.00" arrival="65.00" arrivalPos="5.00" actType="waiting"/>
    </personinfo>
    <personinfo id="p_bf20d9e6a276" depart="1.00" type="DEFAULT_PEDTYPE@p_bf20d9e6a276" speedFactor="0.97" duration="64.00" waitingTime="0.00" timeLoss="0.00" traveltime="0.00">
        <stop duration="64.00" arrival="65.00" arrivalPos="5.00" actType="waiting"/>
    </personinfo>
    <personinfo id="p_e026359997a3" depart="1.00" type="DEFAULT_PEDTYPE@p_e026359997a3" speedFactor="0.85" duration="64.00" waitingTime="0.00" timeLoss="0.00" traveltime="0.00">
        <stop duration="64.00" arrival="65.00" arrivalPos="5.00" actType="waiting"/>
    </personinfo>
    <personinfo id="p_9e4ce62477d3" depart="1.00" type="DEFAULT_PEDTYPE@p_9e4ce62477d3" speedFactor="0.99" duration="64.00" waitingTime="0.00" timeLoss="0.00" traveltime="0.00">
        <stop duration="64.00" arrival="65.00" arrivalPos="5.00" actType="waiting"/>
    </personinfo>
    <personinfo id="p_48f04ee8c80a" depart="1.00" type="DEFAULT_PEDTYPE@p_48f04ee8c80a" speedFactor="0.99" duration="64.00" waitingTime="0.00" timeLoss="0.00" traveltime="0.00">
        <stop duration="64.00" arrival="65.00" arrivalPos="5.00" actType="waiting"/>
    </personinfo>
    <personinfo id="p_74004a3b5164" depart="1.00" type="DEFAULT_PEDTYPE@p_74004a3b5164" speedFactor="0.90" duration="64.00" waitingTime="0.00" timeLoss="0.00" traveltime="0.00">
        <stop duration="64.00" arrival="65.00" arrivalPos="5.00" actType="waiting"/>
    </personinfo>
    <personinfo id="p_7053ca093539" depart="1.00" type="DEFAULT_PEDTYPE@p_7053ca093539" speedFactor="1.11" duration="64.00" waitingTime="0.00" timeLoss="0.00" traveltime="0.00">
        <stop duration="64.00" arrival="65.00" arrivalPos="5.00" actType="waiting"/>
    </personinfo>
    <personinfo id="p_4617fd511dec" depart="1.00" type="DEFAULT_PEDTYPE@p_4617fd511dec" speedFactor="0.92" duration="64.00" waitingTime="0.00" timeLoss="0.00" traveltime="0.00">
        <stop duration="64.00" arrival="65.00" arrivalPos="5.00" actType="waiting"/>
    </personinfo>
    <personinfo id="p_8ee4d66ca340" depart="1.00" type="DEFAULT_PEDTYPE@p_8ee4d66ca340" speedFactor="1.12" duration="64.00" waitingTime="0.00" timeLoss="0.00" traveltime="0.00">
        <stop duration="64.00" arrival="65.00" arrivalPos="5.00" actType="waiting"/>
    </personinfo>
    <personinfo id="p_e597a8999033" depart="1.00" type="DEFAULT_PEDTYPE@p_e597a8999033" speedFactor="0.92" duration="64.00" waitingTime="0.00" timeLoss="0.00" traveltime="0.00">
        <stop duration="64.00" arrival="65.00" arrivalPos="5.00" actType="waiting"/>
    </personinfo>
    <personinfo id="p_72dfe3e912c6" depart="1.00" type="DEFAULT_PEDTYPE@p_72dfe3e912c6" speedFactor="0.98" duration="64.00" waitingTime="0.00" timeLoss="0.00" traveltime="0.00">
        <stop duration="64.00" arrival="65.00" arrivalPos="5.00" actType="waiting"/>
    </personinfo>
    <personinfo id="p_36f5cb6fd6ae" depart="1.00" type="DEFAULT_PEDTYPE@p_36f5cb6fd6ae" speedFactor="0.90" duration="64.00" waitingTime="0.00" timeLoss="0.00" traveltime="0.00">
        <stop duration="64.00" arrival="65.00" arrivalPos="5.00" actType="waiting"/>
    </personinfo>
    <personinfo id="p_6f4453d6b0f6" depart="1.00" type="DEFAULT_PEDTYPE@p_6f4453d6b0f6" speedFactor="1.11" duration="64.00" waitingTime="0.00" timeLoss="0.00" traveltime="0.00">
        <stop duration="64.00" arrival="65.00" arrivalPos="5.00" actType="waiting"/>
    </personinfo>
    <personinfo id="p_0b5aae42d5fc" depart="1.00" type="DEFAULT_PEDTYPE@p_0b5aae42d5fc" speedFactor="1.15" duration="84.00" waitingTime="0.00" timeLoss="0.00" traveltime="0.00">
        <stop duration="84.00" arrival="85.00" arrivalPos="5.00" actType="waiting"/>
    </personinfo>
    <personinfo id="p_7eecfb5a01fd" depart="1.00" type="DEFAULT_PEDTYPE@p_7eecfb5a01fd" speedFactor="1.04" duration="84.00" waitingTime="0.00" timeLoss="0.00" traveltime="0.00">
        <stop duration="84.00" arrival="85.00" arrivalPos="5.00" actType="waiting"/>
    </personinfo>
    <personinfo id="p_6d4c467c8a3e" depart="1.00" type="DEFAULT_PEDTYPE@p_6d4c467c8a3e" speedFactor="0.90" duration="84.00" waitingTime="0.00" timeLoss="0.00" traveltime="0.00">
        <stop duration="84.00" arrival="85.00" arrivalPos="5.00" actType="waiting"/>
    </personinfo>
    <personinfo id="p_b703358ae5ac" depart="1.00" type="DEFAULT_PEDTYPE@p_b703358ae5ac" speedFactor="0.97" duration="84.00" waitingTime="0.00" timeLoss="0.00" traveltime="0.00">
        <stop duration="84.00" arrival="85.00" arrivalPos="5.00" actType="waiting"/>
    </personinfo>
    <personinfo id="p_30ed9d02679c" depart="1.00" type="DEFAULT_PEDTYPE@p_30ed9d02679c" speedFactor="1.07" duration="84.00" waitingTime="0.00" timeLoss="0.00" traveltime="0.00">
        <stop duration="84.00" arrival="85.00" arrivalPos="5.00" actType="waiting"/>
    </personinfo>
    <personinfo id="p_1942495efb2d" depart="1.00" type="DEFAULT_PEDTYPE@p_1942495efb2d" speedFactor="0.96" duration="84.00" waitingTime="0.00" timeLoss="0.00" traveltime="0.00">
        <stop duration="84.00" arrival="85.00" arrivalPos="5.00" actType="waiting"/>
    </personinfo>
    <personinfo id="p_ae86cee360f3" depart="1.00" type="DEFAULT_PEDTYPE@p_ae86cee360f3" speedFactor="0.98" duration="84.00" waitingTime="0.00" timeLoss="0.00" traveltime="0.00">
        <stop duration="84.00" arrival="85.00" arrivalPos="5.00" actType="waiting"/>
    </personinfo>
    <personinfo id="p_8157d752769a" depart="1.00" type="DEFAULT_PEDTYPE@p_8157d752769a" speedFactor="0.98" duration="84.00" waitingTime="0.00" timeLoss="0.00" traveltime="0.00">
        <stop duration="84.00" arrival="85.00" arrivalPos="5.00" actType="waiting"/>
    </personinfo>
    <personinfo id="p_9c8bb8c5ad84" depart="1.00" type="DEFAULT_PEDTYPE@p_9c8bb8c5ad84" speedFactor="0.94" duration="84.00" waitingTime="0.00" timeLoss="0.00" traveltime="0.00">
        <stop duration="84.00" arrival="85.00" arrivalPos="5.00" actType="waiting"/>
    </personinfo>
    <personinfo id="p_d2c7f580325e" depart="1.00" type="DEFAULT_PEDTYPE@p_d2c7f580325e" speedFactor="0.95" duration="84.00" waitingTime="0.00" timeLoss="0.00" traveltime="0.00">
        <stop duration="84.00" arrival="85.00" arrivalPos="5.00" actType="waiting"/>
    </personinfo>
    <personinfo id="p_0bec4ec31ebb" depart="1.00" type="DEFAULT_PEDTYPE@p_0bec4ec31ebb" speedFactor="0.90" duration="84.00" waitingTime="0.00" timeLoss="0.00" traveltime="0.00">
        <stop duration="84.00" arrival="85.00" arrivalPos="5.00" actType="waiting"/>
    </personinfo>
    <personinfo id="p_1903b4c5b33d" depart="1.00" type="DEFAULT_PEDTYPE@p_1903b4c5b33d" speedFactor="1.05" duration="84.00" waitingTime="0.00" timeLoss="0.00" traveltime="0.00">
        <stop duration="84.00" arrival="85.00" arrivalPos="5.00" actType="waiting"/>
    </personinfo>
    <personinfo id="p_6c7ffcf2aabd" depart="1.00" type="DEFAULT_PEDTYPE@p_6c7ffcf2aabd" speedFactor="1.22" duration="84.00" waitingTime="0.00" timeLoss="0.00" traveltime="0.00">
        <stop duration="84.00" arrival="85.00" arrivalPos="5.00" actType="waiting"/>
    </personinfo>
    <personinfo id="p_a33b5ee23d1a" depart="1.00" type="DEFAULT_PEDTYPE@p_a33b5ee23d1a" speedFactor="1.13" duration="84.00" waitingTime="0.00" timeLoss="0.00" traveltime="0.00">
        <stop duration="84.00" arrival="85.00" arrivalPos="5.00" actType="waiting"/>
    </personinfo>
    <personinfo id="p_5c0253c48991" depart="1.00" type="DEFAULT_PEDTYPE@p_5c0253c48991" speedFactor="1.06" duration="84.00" waitingTime="0.00" timeLoss="0.00" traveltime="0.00">
        <stop duration="84.00" arrival="85.00" arrivalPos="5.00" actType="waiting"/>
    </personinfo>
    <personinfo id="p_6c2c6e8a2e95" depart="1.00" type="DEFAULT_PEDTYPE@p_6c2c6e8a2e95" speedFactor="0.89" duration="84.00" waitingTime="0.00" timeLoss="0.00" traveltime="0.00">
        <stop duration="84.00" arrival="85.00" arrivalPos="5.00" actType="waiting"/>
    </personinfo>
    <personinfo id="p_0dab3fc42f32" depart="1.00" type="DEFAULT_PEDTYPE@p_0dab3fc42f32" speedFactor="1.02" duration="84.00" waitingTime="0.00" timeLoss="0.00" traveltime="0.00">
        <stop duration="84.00" arrival="85.00" arrivalPos="5.00" actType="waiting"/>
    </personinfo>
    <personinfo id="p_a31613b128d1" depart="1.00" type="DEFAULT_PEDTYPE@p_a31613b128d1" speedFactor="0.89" duration="84.00" waitingTime="0.00" timeLoss="0.00" traveltime="0.00">
        <stop duration="84.00" arrival="85.00" arrivalPos="5.00" actType="waiting"/>
    </personinfo>
    <personinfo id="p_35dfcaa2e1f1" depart="1.00" type="DEFAULT_PEDTYPE@p_35dfcaa2e1f1" speedFactor="0.96" duration="84.00" waitingTime="0.00" timeLoss="0.00" traveltime="0.00">
        <stop duration="84.00" arrival="85.00" arrivalPos="5.00" actType="waiting"/>
    </personinfo>
    <personinfo id="p_5b5e06d655cf" depart="1.00" type="DEFAULT_PEDTYPE@p_5b5e06d655cf" speedFactor="0.84" duration="84.00" waitingTime="0.00" timeLoss="0.00" traveltime="0.00">
        <stop duration="84.00" arrival="85.00" arrivalPos="5.00" actType="waiting"/>
    </personinfo>
    <personinfo id="p_551b5d04deb9" depart="1.00" type="DEFAULT_PEDTYPE@p_551b5d04deb9" speedFactor="0.97" duration="104.00" waitingTime="0.00" timeLoss="0.00" traveltime="0.00">
        <stop duration="104.00" arrival="105.00" arrivalPos="5.00" actType="waiting"/>
    </personinfo>
    <personinfo id="p_25cb25edf7d0" depart="1.00" type="DEFAULT_PEDTYPE@p_25cb25edf7d0" speedFactor="0.81" duration="104.00" waitingTime="0.00" timeLoss="0.00" traveltime="0.00">
        <stop duration="104.00" arrival="105.00" arrivalPos="5.00" actType="waiting"/>
    </personinfo>
    <personinfo id="p_80875f55df1f" depart="1.00" type="DEFAULT_PEDTYPE@p_80875f55df1f" speedFactor="1.06" duration="104.00" waitingTime="0.00" timeLoss="0.00" traveltime="0.00">
        <stop duration="104.00" arrival="105.00" arrivalPos="5.00" actType="waiting"/>
    </personinfo>
    <personinfo id="p_154e50fd8ab3" depart="1.00" type="DEFAULT_PEDTYPE@p_154e50fd8ab3" speedFactor="1.04" duration="104.00" waitingTime="0.00" timeLoss="0.00" traveltime="0.00">
        <stop duration="104.00" arrival="105.00" arrivalPos="5.00" actType="waiting"/>
    </personinfo>
    <personinfo id="p_f98912959f25" depart="1.00" type="DEFAULT_PEDTYPE@p_f98912959f25" speedFactor="0.96" duration="104.00" waitingTime="0.00" timeLoss="0.00" traveltime="0.00">
        <stop duration="104.00" arrival="105.00" arrivalPos="5.00" actType="waiting"/>
    </personinfo>
    <personinfo id="p_6706dc938115" depart="1.00" type="DEFAULT_PEDTYPE@p_6706dc938115" speedFactor="1.03" duration="104.00" waitingTime="0.00" timeLoss="0.00" traveltime="0.00">
        <stop duration="104.00" arrival="105.00" arrivalPos="5.00" actType="waiting"/>
    </personinfo>
    <personinfo id="p_6de51d1e42db" depart="1.00" type="DEFAULT_PEDTYPE@p_6de51d1e42db" speedFactor="0.93" duration="104.00" waitingTime="0.00" timeLoss="0.00" traveltime="0.00">
        <stop duration="104.00" arrival="105.00" arrivalPos="5.00" actType="waiting"/>
    </personinfo>
    <personinfo id="p_5fb9b501b4b4" depart="1.00" type="DEFAULT_PEDTYPE@p_5fb9b501b4b4" speedFactor="1.01" duration="104.00" waitingTime="0.00" timeLoss="0.00" traveltime="0.00">
        <stop duration="104.00" arrival="105.00" arrivalPos="5.00" actType="waiting"/>
    </personinfo>
    <personinfo id="p_bd8986227c84" depart="1.00" type="DEFAULT_PEDTYPE@p_bd8986227c84" speedFactor="1.18" duration="104.00" waitingTime="0.00" timeLoss="0.00" traveltime="0.00">
        <stop duration="104.00" arrival="105.00" arrivalPos="5.00" actType="waiting"/>
    </personinfo>
    <personinfo id="p_13b9e8ad3793" depart="1.00" type="DEFAULT_PEDTYPE@p_13b9e8ad3793" speedFactor="1.10" duration="104.00" waitingTime="0.00" timeLoss="0.00" traveltime="0.00">
        <stop duration="104.00" arrival="105.00" arrivalPos="5.00" actType="waiting"/>
    </personinfo>
    <personinfo id="p_909da003fe2a" depart="1.00" type="DEFAULT_PEDTYPE@p_909da003fe2a" speedFactor="1.09" duration="104.00" waitingTime="0.00" timeLoss="0.00" traveltime="0.00">
        <stop duration="104.00" arrival="105.00" arrivalPos="5.00" actType="waiting"/>
    </personinfo>
    <personinfo id="p_a1a9224f13f8" depart="1.00" type="DEFAULT_PEDTYPE@p_a1a9224f13f8" speedFactor="0.96" duration="104.00" waitingTime="0.00" timeLoss="0.00" traveltime="0.00">
        <stop duration="104.00" arrival="105.00" arrivalPos="5.00" actType="waiting"/>
    </personinfo>
    <personinfo id="p_f57fba328745" depart="1.00" type="DEFAULT_PEDTYPE@p_f57fba328745" speedFactor="0.95" duration="104.00" waitingTime="0.00" timeLoss="0.00" traveltime="0.00">
        <stop duration="104.00" arrival="105.00" arrivalPos="5.00" actType="waiting"/>
    </personinfo>
    <personinfo id="p_7fe6cd8968f3" depart="1.00" type="DEFAULT_PEDTYPE@p_7fe6cd8968f3" speedFactor="1.04" duration="104.00" waitingTime="0.00" timeLoss="0.00" traveltime="0.00">
        <stop duration="104.00" arrival="105.00" arrivalPos="5.00" actType="waiting"/>
    </personinfo>
    <personinfo id="p_30c7e4c3ff89" depart="1.00" type="DEFAULT_PEDTYPE@p_30c7e4c3ff89" speedFactor="0.93" duration="104.00" waitingTime="0.00" timeLoss="0.00" traveltime="0.00">
        <stop duration="104.00" arrival="105.00" arrivalPos="5.00" actType="waiting"/>
    </personinfo>
    <personinfo id="p_ba0e41ddf375" depart="1.00" type="DEFAULT_PEDTYPE@p_ba0e41ddf375" speedFactor="0.91" duration="104.00" waitingTime="0.00" timeLoss="0.00" traveltime="0.00">
        <stop duration="104.00" arrival="105.00" arrivalPos="5.00" actType="waiting"/>
    </personinfo>
    <personinfo id="p_81ecf12bb1a1" depart="1.00" type="DEFAULT_PEDTYPE@p_81ecf12bb1a1" speedFactor="1.02" duration="104.00" waitingTime="0.00" timeLoss="0.00" traveltime="0.00">
        <stop duration="104.00" arrival="105.00" arrivalPos="5.00" actType="waiting"/>
    </personinfo>
    <personinfo id="p_bfa5f1254d24" depart="1.00" type="DEFAULT_PEDTYPE@p_bfa5f1254d24" speedFactor="0.93" duration="104.00" waitingTime="0.00" timeLoss="0.00" traveltime="0.00">
        <stop duration="104.00" arrival="105.00" arrivalPos="5.00" actType="waiting"/>
    </personinfo>
    <personinfo id="p_fd44b4bfb1c8" depart="1.00" type="DEFAULT_PEDTYPE@p_fd44b4bfb1c8" speedFactor="1.04" duration="104.00" waitingTime="0.00" timeLoss="0.00" traveltime="0.00">
        <stop duration="104.00" arrival="105.00" arrivalPos="5.00" actType="waiting"/>
    </personinfo>
    <personinfo id="p_744d8f638b6f" depart="1.00" type="DEFAULT_PEDTYPE@p_744d8f638b6f" speedFactor="0.96" duration="104.00" waitingTime="0.00" timeLoss="0.00" traveltime="0.00">
        <stop duration="104.00" arrival="105.00" arrivalPos="5.00" actType="waiting"/>
    </personinfo>
    <personinfo id="p_14a0e0e10d8f" depart="1.00" type="DEFAULT_PEDTYPE@p_14a0e0e10d8f" speedFactor="0.99" duration="124.00" waitingTime="0.00" timeLoss="0.00" traveltime="0.00">
        <stop duration="124.00" arrival="125.00" arrivalPos="5.00" actType="waiting"/>
    </personinfo>