<?xml version="1.0" encoding="UTF-8"?>

<!-- generated on 2026-05-26T12:30:55.162300+09:00 by Eclipse SUMO GUI 1.26.0
<sumoConfiguration xmlns:xsi="http://www.w3.org/2001/XMLSchema-instance" xsi:noNamespaceSchemaLocation="http://sumo.dlr.de/xsd/sumoConfiguration.xsd">

    <input>
        <net-file value="data/net.net.xml"/>
        <route-files value="data/routes.xml"/>
    </input>

    <output>
        <summary-output value="d:\Sumo\doc\tutorial\manhattan\data\summary.xml"/>
        <tripinfo-output value="d:\Sumo\doc\tutorial\manhattan\data\tripinfo.xml"/>
        <vehroute-output value="d:\Sumo\doc\tutorial\manhattan\data\vehroutes.xml"/>
        <vehroute-output.exit-times value="true"/>
        <vehroute-output.write-unfinished value="true"/>
    </output>

    <time>
        <begin value="0"/>
        <end value="7200"/>
    </time>

    <processing>
        <time-to-teleport value="300"/>
    </processing>

    <report>
        <verbose value="true"/>
        <no-warnings value="false"/>
        <log value="data/sumo.log"/>
        <duration-log.statistics value="true"/>
    </report>

    <traci_server>
        <remote-port value="49272"/>
    </traci_server>

    <gui_only>
        <gui-settings-file value="data/manhattan.jtrrcfg"/>
        <quit-on-end value="true"/>
        <start value="true"/>
        <delay value="100"/>
    </gui_only>

</sumoConfiguration>
-->

<tripinfos xmlns:xsi="http://www.w3.org/2001/XMLSchema-instance" xsi:noNamespaceSchemaLocation="http://sumo.dlr.de/xsd/tripinfo_file.xsd">
    <personinfo id="p_1b029895ae12" depart="1.00" type="DEFAULT_PEDTYPE@p_1b029895ae12" speedFactor="1.08" duration="24.00" waitingTime="0.00" timeLoss="0.00" traveltime="0.00">
        <stop duration="24.00" arrival="25.00" arrivalPos="5.00" actType="waiting"/>
    </personinfo>
    <personinfo id="p_85b1bd571f70" depart="1.00" type="DEFAULT_PEDTYPE@p_85b1bd571f70" speedFactor="0.98" duration="24.00" waitingTime="0.00" timeLoss="0.00" traveltime="0.00">
        <stop duration="24.00" arrival="25.00" arrivalPos="5.00" actType="waiting"/>
    </personinfo>
    <personinfo id="p_644dcb0910e9" depart="1.00" type="DEFAULT_PEDTYPE@p_644dcb0910e9" speedFactor="1.04" duration="24.00" waitingTime="0.00" timeLoss="0.00" traveltime="0.00">
        <stop duration="24.00" arrival="25.00" arrivalPos="5.00" actType="waiting"/>
    </personinfo>
    <personinfo id="p_5421407c68a3" depart="1.00" type="DEFAULT_PEDTYPE@p_5421407c68a3" speedFactor="0.98" duration="24.00" waitingTime="0.00" timeLoss="0.00" traveltime="0.00">
        <stop duration="24.00" arrival="25.00" arrivalPos="5.00" actType="waiting"/>
    </personinfo>
    <personinfo id="p_3d5d146b2006" depart="1.00" type="DEFAULT_PEDTYPE@p_3d5d146b2006" speedFactor="1.14" duration="24.00" waitingTime="0.00" timeLoss="0.00" traveltime="0.00">
        <stop duration="24.00" arrival="25.00" arrivalPos="5.00" actType="waiting"/>
    </personinfo>
    <personinfo id="p_4cc1be7a7b2e" depart="1.00" type="DEFAULT_PEDTYPE@p_4cc1be7a7b2e" speedFactor="1.07" duration="24.00" waitingTime="0.00" timeLoss="0.00" traveltime="0.00">
        <stop duration="24.00" arrival="25.00" arrivalPos="5.00" actType="waiting"/>
    </personinfo>
    <personinfo id="p_694c77d19f97" depart="1.00" type="DEFAULT_PEDTYPE@p_694c77d19f97" speedFactor="0.88" duration="24.00" waitingTime="0.00" timeLoss="0.00" traveltime="0.00">
        <stop duration="24.00" arrival="25.00" arrivalPos="5.00" actType="waiting"/>
    </personinfo>
    <personinfo id="p_3d51eab7d9c0" depart="1.00" type="DEFAULT_PEDTYPE@p_3d51eab7d9c0" speedFactor="0.99" duration="24.00" waitingTime="0.00" timeLoss="0.00" traveltime="0.00">
        <stop duration="24.00" arrival="25.00" arrivalPos="5.00" actType="waiting"/>
    </personinfo>
    <personinfo id="p_668395832f3d" depart="1.00" type="DEFAULT_PEDTYPE@p_668395832f3d" speedFactor="0.80" duration="24.00" waitingTime="0.00" timeLoss="0.00" traveltime="0.00">
        <stop duration="24.00" arrival="25.00" arrivalPos="5.00" actType="waiting"/>
    </personinfo>
    <personinfo id="p_c8c27cce92d7" depart="1.00" type="DEFAULT_PEDTYPE@p_c8c27cce92d7" speedFactor="0.99" duration="24.00" waitingTime="0.00" timeLoss="0.00" traveltime="0.00">
        <stop duration="24.00" arrival="25.00" arrivalPos="5.00" actType="waiting"/>
    </personinfo>
    <personinfo id="p_ac329f129b15" depart="1.00" type="DEFAULT_PEDTYPE@p_ac329f129b15" speedFactor="1.01" duration="24.00" waitingTime="0.00" timeLoss="0.00" traveltime="0.00">
        <stop duration="24.00" arrival="25.00" arrivalPos="5.00" actType="waiting"/>
    </personinfo>
    <personinfo id="p_cd8a6f45f7cc" depart="1.00" type="DEFAULT_PEDTYPE@p_cd8a6f45f7cc" speedFactor="0.96" duration="24.00" waitingTime="0.00" timeLoss="0.00" traveltime="0.00">
        <stop duration="24.00" arrival="25.00" arrivalPos="5.00" actType="waiting"/>
    </personinfo>
    <personinfo id="p_78fe5a6c2bdb" depart="1.00" type="DEFAULT_PEDTYPE@p_78fe5a6c2bdb" speedFactor="0.98" duration="24.00" waitingTime="0.00" timeLoss="0.00" traveltime="0.00">
        <stop duration="24.00" arrival="25.00" arrivalPos="5.00" actType="waiting"/>
    </personinfo>
    <personinfo id="p_58ae7a2ec480" depart="1.00" type="DEFAULT_PEDTYPE@p_58ae7a2ec480" speedFactor="0.94" duration="24.00" waitingTime="0.00" timeLoss="0.00" traveltime="0.00">
        <stop duration="24.00" arrival="25.00" arrivalPos="5.00" actType="waiting"/>
    </personinfo>
    <personinfo id="p_72efa3dabb6e" depart="1.00" type="DEFAULT_PEDTYPE@p_72efa3dabb6e" speedFactor="1.06" duration="24.00" waitingTime="0.00" timeLoss="0.00" traveltime="0.00">
        <stop duration="24.00" arrival="25.00" arrivalPos="5.00" actType="waiting"/>
    </personinfo>
    <personinfo id="p_b225936bf433" depart="1.00" type="DEFAULT_PEDTYPE@p_b225936bf433" speedFactor="1.06" duration="24.00" waitingTime="0.00" timeLoss="0.00" traveltime="0.00">
        <stop duration="24.00" arrival="25.00" arrivalPos="5.00" actType="waiting"/>
    </personinfo>
    <personinfo id="p_e8730e290ba2" depart="1.00" type="DEFAULT_PEDTYPE@p_e8730e290ba2" speedFactor="0.94" duration="24.00" waitingTime="0.00" timeLoss="0.00" traveltime="0.00">
        <stop duration="24.00" arrival="25.00" arrivalPos="5.00" actType="waiting"/>
    </personinfo>
    <personinfo id="p_b58de31ab795" depart="1.00" type="DEFAULT_PEDTYPE@p_b58de31ab795" speedFactor="1.06" duration="24.00" waitingTime="0.00" timeLoss="0.00" traveltime="0.00">
        <stop duration="24.00" arrival="25.00" arrivalPos="5.00" actType="waiting"/>
    </personinfo>
    <personinfo id="p_d1d1ea678181" depart="1.00" type="DEFAULT_PEDTYPE@p_d1d1ea678181" speedFactor="1.03" duration="24.00" waitingTime="0.00" timeLoss="0.00" traveltime="0.00">
        <stop duration="24.00" arrival="25.00" arrivalPos="5.00" actType="waiting"/>
    </personinfo>
    <personinfo id="p_04060ff1ce75" depart="1.00" type="DEFAULT_PEDTYPE@p_04060ff1ce75" speedFactor="1.20" duration="24.00" waitingTime="0.00" timeLoss="0.00" traveltime="0.00">
        <stop duration="24.00" arrival="25.00" arrivalPos="5.00" actType="waiting"/>
    </personinfo>
    <personinfo id="p_0453048bbe9c" depart="1.00" type="DEFAULT_PEDTYPE@p_0453048bbe9c" speedFactor="0.98" duration="44.00" waitingTime="0.00" timeLoss="0.00" traveltime="0.00">
        <stop duration="44.00" arrival="45.00" arrivalPos="5.00" actType="waiting"/>
    </personinfo>
    <personinfo id="p_516dcb0005b0" depart="1.00" type="DEFAULT_PEDTYPE@p_516dcb0005b0" speedFactor="0.93" duration="44.00" waitingTime="0.00" timeLoss="0.00" traveltime="0.00">
        <stop duration="44.00" arrival="45.00" arrivalPos="5.00" actType="waiting"/>
    </personinfo>
    <personinfo id="p_27afdd5ef2d2" depart="1.00" type="DEFAULT_PEDTYPE@p_27afdd5ef2d2" speedFactor="0.87" duration="44.00" waitingTime="0.00" timeLoss="0.00" traveltime="0.00">
        <stop duration="44.00" arrival="45.00" arrivalPos="5.00" actType="waiting"/>
    </personinfo>
    <personinfo id="p_3ec1ccdc2330" depart="1.00" type="DEFAULT_PEDTYPE@p_3ec1ccdc2330" speedFactor="0.95" duration="44.00" waitingTime="0.00" timeLoss="0.00" traveltime="0.00">
        <stop duration="44.00" arrival="45.00" arrivalPos="5.00" actType="waiting"/>
    </personinfo>
    <personinfo id="p_81f4ec9d1be6" depart="1.00" type="DEFAULT_PEDTYPE@p_81f4ec9d1be6" speedFactor="0.93" duration="44.00" waitingTime="0.00" timeLoss="0.00" traveltime="0.00">
        <stop duration="44.00" arrival="45.00" arrivalPos="5.00" actType="waiting"/>
    </personinfo>
    <personinfo id="p_23fc55ab90c8" depart="1.00" type="DEFAULT_PEDTYPE@p_23fc55ab90c8" speedFactor="1.07" duration="44.00" waitingTime="0.00" timeLoss="0.00" traveltime="0.00">
        <stop duration="44.00" arrival="45.00" arrivalPos="5.00" actType="waiting"/>
    </personinfo>
    <personinfo id="p_4f34205dd1bb" depart="1.00" type="DEFAULT_PEDTYPE@p_4f34205dd1bb" speedFactor="1.14" duration="44.00" waitingTime="0.00" timeLoss="0.00" traveltime="0.00">
        <stop duration="44.00" arrival="45.00" arrivalPos="5.00" actType="waiting"/>
    </personinfo>
    <personinfo id="p_58d705b32c2f" depart="1.00" type="DEFAULT_PEDTYPE@p_58d705b32c2f" speedFactor="1.04" duration="44.00" waitingTime="0.00" timeLoss="0.00" traveltime="0.00">
        <stop duration="44.00" arrival="45.00" arrivalPos="5.00" actType="waiting"/>
    </personinfo>
    <personinfo id="p_fe7db6a64a10" depart="1.00" type="DEFAULT_PEDTYPE@p_fe7db6a64a10" speedFactor="1.00" duration="44.00" waitingTime="0.00" timeLoss="0.00" traveltime="0.00">
        <stop duration="44.00" arrival="45.00" arrivalPos="5.00" actType="waiting"/>
    </personinfo>
    <personinfo id="p_a4993eedc084" depart="1.00" type="DEFAULT_PEDTYPE@p_a4993eedc084" speedFactor="0.94" duration="44.00" waitingTime="0.00" timeLoss="0.00" traveltime="0.00">
        <stop duration="44.00" arrival="45.00" arrivalPos="5.00" actType="waiting"/>
    </personinfo>
    <personinfo id="p_a9ccbc5a2e6b" depart="1.00" type="DEFAULT_PEDTYPE@p_a9ccbc5a2e6b" speedFactor="1.00" duration="44.00" waitingTime="0.00" timeLoss="0.00" traveltime="0.00">
        <stop duration="44.00" arrival="45.00" arrivalPos="5.00" actType="waiting"/>
    </personinfo>
    <personinfo id="p_4ece88b0cca9" depart="1.00" type="DEFAULT_PEDTYPE@p_4ece88b0cca9" speedFactor="1.04" duration="44.00" waitingTime="0.00" timeLoss="0.00" traveltime="0.00">
        <stop duration="44.00" arrival="45.00" arrivalPos="5.00" actType="waiting"/>
    </personinfo>
    <personinfo id="p_1d324687d6eb" depart="1.00" type="DEFAULT_PEDTYPE@p_1d324687d6eb" speedFactor="0.96" duration="44.00" waitingTime="0.00" timeLoss="0.00" traveltime="0.00">
        <stop duration="44.00" arrival="45.00" arrivalPos="5.00" actType="waiting"/>
    </personinfo>
    <personinfo id="p_25a45064748a" depart="1.00" type="DEFAULT_PEDTYPE@p_25a45064748a" speedFactor="1.00" duration="44.00" waitingTime="0.00" timeLoss="0.00" traveltime="0.00">
        <stop duration="44.00" arrival="45.00" arrivalPos="5.00" actType="waiting"/>
    </personinfo>
    <personinfo id="p_cd9ed70f84f8" depart="1.00" type="DEFAULT_PEDTYPE@p_cd9ed70f84f8" speedFactor="0.98" duration="44.00" waitingTime="0.00" timeLoss="0.00" traveltime="0.00">
        <stop duration="44.00" arrival="45.00" arrivalPos="5.00" actType="waiting"/>
    </personinfo>
    <personinfo id="p_0b08528cded0" depart="1.00" type="DEFAULT_PEDTYPE@p_0b08528cded0" speedFactor="0.79" duration="44.00" waitingTime="0.00" timeLoss="0.00" traveltime="0.00">
        <stop duration="44.00" arrival="45.00" arrivalPos="5.00" actType="waiting"/>
    </personinfo>
    <personinfo id="p_ad7b7a5cd867" depart="1.00" type="DEFAULT_PEDTYPE@p_ad7b7a5cd867" speedFactor="1.02" duration="44.00" waitingTime="0.00" timeLoss="0.00" traveltime="0.00">
        <stop duration="44.00" arrival="45.00" arrivalPos="5.00" actType="waiting"/>
    </personinfo>
    <personinfo id="p_87f24e86d594" depart="1.00" type="DEFAULT_PEDTYPE@p_87f24e86d594" speedFactor="1.11" duration="44.00" waitingTime="0.00" timeLoss="0.00" traveltime="0.00">
        <stop duration="44.00" arrival="45.00" arrivalPos="5.00" actType="waiting"/>
    </personinfo>
    <personinfo id="p_61c99aa91195" depart="1.00" type="DEFAULT_PEDTYPE@p_61c99aa91195" speedFactor="0.97" duration="44.00" waitingTime="0.00" timeLoss="0.00" traveltime="0.00">
        <stop duration="44.00" arrival="45.00" arrivalPos="5.00" actType="waiting"/>
    </personinfo>
    <personinfo id="p_5a715bbdf195" depart="1.00" type="DEFAULT_PEDTYPE@p_5a715bbdf195" speedFactor="0.90" duration="44.00" waitingTime="0.00" timeLoss="0.00" traveltime="0.00">
        <stop duration="44.00" arrival="45.00" arrivalPos="5.00" actType="waiting"/>
    </personinfo>
    <personinfo id="p_0a42a5c6e578" depart="1.00" type="DEFAULT_PEDTYPE@p_0a42a5c6e578" speedFactor="0.97" duration="64.00" waitingTime="0.00" timeLoss="0.00" traveltime="0.00">
        <stop duration="64.00" arrival="65.00" arrivalPos="5.00" actType="waiting"/>
    </personinfo>
    <personinfo id="p_998499dbecb7" depart="1.00" type="DEFAULT_PEDTYPE@p_998499dbecb7" speedFactor="0.88" duration="64.00" waitingTime="0.00" timeLoss="0.00" traveltime="0.00">
        <stop duration="64.00" arrival="65.00" arrivalPos="5.00" actType="waiting"/>
    </personinfo>
    <personinfo id="p_a34690576027" depart="1.00" type="DEFAULT_PEDTYPE@p_a34690576027" speedFactor="0.92" duration="64.00" waitingTime="0.00" timeLoss="0.00" traveltime="0.00">
        <stop duration="64.00" arrival="65.00" arrivalPos="5.00" actType="waiting"/>
    </personinfo>
    <personinfo id="p_6267f83bf02c" depart="1.00" type="DEFAULT_PEDTYPE@p_6267f83bf02c" speedFactor="1.03" duration="64.00" waitingTime="0.00" timeLoss="0.00" traveltime="0.00">
        <stop duration="64.00" arrival="65.00" arrivalPos="5.00" actType="waiting"/>
    </personinfo>
    <personinfo id="p_543deea2dc47" depart="1.00" type="DEFAULT_PEDTYPE@p_543deea2dc47" speedFactor="1.02" duration="64.00" waitingTime="0.00" timeLoss="0.00" traveltime="0.00">
        <stop duration="64.00" arrival="65.00" arrivalPos="5.00" actType="waiting"/>
    </personinfo>
    <personinfo id="p_2fac2f3f40b5" depart="1.00" type="DEFAULT_PEDTYPE@p_2fac2f3f40b5" speedFactor="0.97" duration="64.00" waitingTime="0.00" timeLoss="0.00" traveltime="0.00">
        <stop duration="64.00" arrival="65.00" arrivalPos="5.00" actType="waiting"/>
    </personinfo>
    <personinfo id="p_07da56cea218" depart="1.00" type="DEFAULT_PEDTYPE@p_07da56cea218" speedFactor="0.90" duration="64.00" waitingTime="0.00" timeLoss="0.00" traveltime="0.00">
        <stop duration="64.00" arrival="65.00" arrivalPos="5.00" actType="waiting"/>
    </personinfo>
    <personinfo id="p_be59ff75d66b" depart="1.00" type="DEFAULT_PEDTYPE@p_be59ff75d66b" speedFactor="1.13" duration="64.00" waitingTime="0.00" timeLoss="0.00" traveltime="0.00">
        <stop duration="64.00" arrival="65.00" arrivalPos="5.00" actType="waiting"/>
    </personinfo>
    <personinfo id="p_20a917d8ceed" depart="1.00" type="DEFAULT_PEDTYPE@p_20a917d8ceed" speedFactor="0.99" duration="64.00" waitingTime="0.00" timeLoss="0.00" traveltime="0.00">
        <stop duration="64.00" arrival="65.00" arrivalPos="5.00" actType="waiting"/>
    </personinfo>
    <personinfo id="p_fcbd763154c0" depart="1.00" type="DEFAULT_PEDTYPE@p_fcbd763154c0" speedFactor="1.04" duration="64.00" waitingTime="0.00" timeLoss="0.00" traveltime="0.00">
        <stop duration="64.00" arrival="65.00" arrivalPos="5.00" actType="waiting"/>
    </personinfo>
    <personinfo id="p_bbc084ccb81e" depart="1.00" type="DEFAULT_PEDTYPE@p_bbc084ccb81e" speedFactor="0.91" duration="64.00" waitingTime="0.00" timeLoss="0.00" traveltime="0.00">
        <stop duration="64.00" arrival="65.00" arrivalPos="5.00" actType="waiting"/>
    </personinfo>
    <personinfo id="p_0c9f718210a8" depart="1.00" type="DEFAULT_PEDTYPE@p_0c9f718210a8" speedFactor="1.02" duration="64.00" waitingTime="0.00" timeLoss="0.00" traveltime="0.00">
        <stop duration="64.00" arrival="65.00" arrivalPos="5.00" actType="waiting"/>
    </personinfo>
    <personinfo id="p_63bb5c94ed93" depart="1.00" type="DEFAULT_PEDTYPE@p_63bb5c94ed93" speedFactor="1.14" duration="64.00" waitingTime="0.00" timeLoss="0.00" traveltime="0.00">
        <stop duration="64.00" arrival="65.00" arrivalPos="5.00" actType="waiting"/>
    </personinfo>
    <personinfo id="p_02507a7b90af" depart="1.00" type="DEFAULT_PEDTYPE@p_02507a7b90af" speedFactor="1.20" duration="64.00" waitingTime="0.00" timeLoss="0.00" traveltime="0.00">
        <stop duration="64.00" arrival="65.00" arrivalPos="5.00" actType="waiting"/>
    </personinfo>
    <personinfo id="p_8c900ca3790f" depart="1.00" type="DEFAULT_PEDTYPE@p_8c900ca3790f" speedFactor="0.85" duration="64.00" waitingTime="0.00" timeLoss="0.00" traveltime="0.00">
        <stop duration="64.00" arrival="65.00" arrivalPos="5.00" actType="waiting"/>
    </personinfo>
    <personinfo id="p_082dec2cc94c" depart="1.00" type="DEFAULT_PEDTYPE@p_082dec2cc94c" speedFactor="0.86" duration="64.00" waitingTime="0.00" timeLoss="0.00" traveltime="0.00">
        <stop duration="64.00" arrival="65.00" arrivalPos="5.00" actType="waiting"/>
    </personinfo>
    <personinfo id="p_465202f61595" depart="1.00" type="DEFAULT_PEDTYPE@p_465202f61595" speedFactor="1.14" duration="64.00" waitingTime="0.00" timeLoss="0.00" traveltime="0.00">
        <stop duration="64.00" arrival="65.00" arrivalPos="5.00" actType="waiting"/>
    </personinfo>
    <personinfo id="p_c01b46ec6239" depart="1.00" type="DEFAULT_PEDTYPE@p_c01b46ec6239" speedFactor="1.09" duration="64.00" waitingTime="0.00" timeLoss="0.00" traveltime="0.00">
        <stop duration="64.00" arrival="65.00" arrivalPos="5.00" actType="waiting"/>
    </personinfo>
    <personinfo id="p_30e1381cae04" depart="1.00" type="DEFAULT_PEDTYPE@p_30e1381cae04" speedFactor="1.07" duration="64.00" waitingTime="0.00" timeLoss="0.00" traveltime="0.00">
        <stop duration="64.00" arrival="65.00" arrivalPos="5.00" actType="waiting"/>
    </personinfo>
    <personinfo id="p_9f896bbd5ea1" depart="1.00" type="DEFAULT_PEDTYPE@p_9f896bbd5ea1" speedFactor="0.88" duration="64.00" waitingTime="0.00" timeLoss="0.00" traveltime="0.00">
        <stop duration="64.00" arrival="65.00" arrivalPos="5.00" actType="waiting"/>
    </personinfo>
    <personinfo id="p_dfd546e26892" depart="1.00" type="DEFAULT_PEDTYPE@p_dfd546e26892" speedFactor="0.90" duration="84.00" waitingTime="0.00" timeLoss="0.00" traveltime="0.00">
        <stop duration="84.00" arrival="85.00" arrivalPos="5.00" actType="waiting"/>
    </personinfo>
    <personinfo id="p_ce5b1a682d1b" depart="1.00" type="DEFAULT_PEDTYPE@p_ce5b1a682d1b" speedFactor="1.00" duration="84.00" waitingTime="0.00" timeLoss="0.00" traveltime="0.00">
        <stop duration="84.00" arrival="85.00" arrivalPos="5.00" actType="waiting"/>
    </personinfo>
    <personinfo id="p_214190dfe13b" depart="1.00" type="DEFAULT_PEDTYPE@p_214190dfe13b" speedFactor="1.11" duration="84.00" waitingTime="0.00" timeLoss="0.00" traveltime="0.00">
        <stop duration="84.00" arrival="85.00" arrivalPos="5.00" actType="waiting"/>
    </personinfo>
    <personinfo id="p_74d0172e7a26" depart="1.00" type="DEFAULT_PEDTYPE@p_74d0172e7a26" speedFactor="0.92" duration="84.00" waitingTime="0.00" timeLoss="0.00" traveltime="0.00">
        <stop duration="84.00" arrival="85.00" arrivalPos="5.00" actType="waiting"/>
    </personinfo>
    <personinfo id="p_c5ab91ba070b" depart="1.00" type="DEFAULT_PEDTYPE@p_c5ab91ba070b" speedFactor="0.87" duration="84.00" waitingTime="0.00" timeLoss="0.00" traveltime="0.00">
        <stop duration="84.00" arrival="85.00" arrivalPos="5.00" actType="waiting"/>
    </personinfo>
    <personinfo id="p_92e44a66d328" depart="1.00" type="DEFAULT_PEDTYPE@p_92e44a66d328" speedFactor="1.01" duration="84.00" waitingTime="0.00" timeLoss="0.00" traveltime="0.00">
        <stop duration="84.00" arrival="85.00" arrivalPos="5.00" actType="waiting"/>
    </personinfo>
    <personinfo id="p_dfe5d9fffe41" depart="1.00" type="DEFAULT_PEDTYPE@p_dfe5d9fffe41" speedFactor="1.12" duration="84.00" waitingTime="0.00" timeLoss="0.00" traveltime="0.00">
        <stop duration="84.00" arrival="85.00" arrivalPos="5.00" actType="waiting"/>
    </personinfo>
    <personinfo id="p_3bcd52fc8048" depart="1.00" type="DEFAULT_PEDTYPE@p_3bcd52fc8048" speedFactor="1.06" duration="84.00" waitingTime="0.00" timeLoss="0.00" traveltime="0.00">
        <stop duration="84.00" arrival="85.00" arrivalPos="5.00" actType="waiting"/>
    </personinfo>
    <personinfo id="p_f7401b96f004" depart="1.00" type="DEFAULT_PEDTYPE@p_f7401b96f004" speedFactor="1.13" duration="84.00" waitingTime="0.00" timeLoss="0.00" traveltime="0.00">
        <stop duration="84.00" arrival="85.00" arrivalPos="5.00" actType="waiting"/>
    </personinfo>
    <personinfo id="p_356216b2f6de" depart="1.00" type="DEFAULT_PEDTYPE@p_356216b2f6de" speedFactor="1.01" duration="84.00" waitingTime="0.00" timeLoss="0.00" traveltime="0.00">
        <stop duration="84.00" arrival="85.00" arrivalPos="5.00" actType="waiting"/>
    </personinfo>
    <personinfo id="p_cea5c00f2504" depart="1.00" type="DEFAULT_PEDTYPE@p_cea5c00f2504" speedFactor="0.88" duration="84.00" waitingTime="0.00" timeLoss="0.00" traveltime="0.00">
        <stop duration="84.00" arrival="85.00" arrivalPos="5.00" actType="waiting"/>
    </personinfo>
    <personinfo id="p_426ef05d667f" depart="1.00" type="DEFAULT_PEDTYPE@p_426ef05d667f" speedFactor="0.96" duration="84.00" waitingTime="0.00" timeLoss="0.00" traveltime="0.00">
        <stop duration="84.00" arrival="85.00" arrivalPos="5.00" actType="waiting"/>
    </personinfo>
    <personinfo id="p_6abfe9ff70bb" depart="1.00" type="DEFAULT_PEDTYPE@p_6abfe9ff70bb" speedFactor="0.97" duration="84.00" waitingTime="0.00" timeLoss="0.00" traveltime="0.00">
        <stop duration="84.00" arrival="85.00" arrivalPos="5.00" actType="waiting"/>
    </personinfo>
    <personinfo id="p_2ae2b58b7f3b" depart="1.00" type="DEFAULT_PEDTYPE@p_2ae2b58b7f3b" speedFactor="0.86" duration="84.00" waitingTime="0.00" timeLoss="0.00" traveltime="0.00">
        <stop duration="84.00" arrival="85.00" arrivalPos="5.00" actType="waiting"/>
    </personinfo>
    <personinfo id="p_caaea5eb1b49" depart="1.00" type="DEFAULT_PEDTYPE@p_caaea5eb1b49" speedFactor="0.95" duration="84.00" waitingTime="0.00" timeLoss="0.00" traveltime="0.00">
        <stop duration="84.00" arrival="85.00" arrivalPos="5.00" actType="waiting"/>
    </personinfo>
    <personinfo id="p_929d92fb447b" depart="1.00" type="DEFAULT_PEDTYPE@p_929d92fb447b" speedFactor="1.01" duration="84.00" waitingTime="0.00" timeLoss="0.00" traveltime="0.00">
        <stop duration="84.00" arrival="85.00" arrivalPos="5.00" actType="waiting"/>
    </personinfo>
    <personinfo id="p_046097f03609" depart="1.00" type="DEFAULT_PEDTYPE@p_046097f03609" speedFactor="1.02" duration="84.00" waitingTime="0.00" timeLoss="0.00" traveltime="0.00">
        <stop duration="84.00" arrival="85.00" arrivalPos="5.00" actType="waiting"/>
    </personinfo>
    <personinfo id="p_33c8002c817d" depart="1.00" type="DEFAULT_PEDTYPE@p_33c8002c817d" speedFactor="0.85" duration="84.00" waitingTime="0.00" timeLoss="0.00" traveltime="0.00">
        <stop duration="84.00" arrival="85.00" arrivalPos="5.00" actType="waiting"/>
    </personinfo>
    <personinfo id="p_42f6dd8bd519" depart="1.00" type="DEFAULT_PEDTYPE@p_42f6dd8bd519" speedFactor="1.03" duration="84.00" waitingTime="0.00" timeLoss="0.00" traveltime="0.00">
        <stop duration="84.00" arrival="85.00" arrivalPos="5.00" actType="waiting"/>
    </personinfo>
    <personinfo id="p_b2e2fbbd760e" depart="1.00" type="DEFAULT_PEDTYPE@p_b2e2fbbd760e" speedFactor="1.03" duration="84.00" waitingTime="0.00" timeLoss="0.00" traveltime="0.00">
        <stop duration="84.00" arrival="85.00" arrivalPos="5.00" actType="waiting"/>
    </personinfo>
    <personinfo id="p_a7a2a86efc7c" depart="1.00" type="DEFAULT_PEDTYPE@p_a7a2a86efc7c" speedFactor="0.89" duration="104.00" waitingTime="0.00" timeLoss="0.00" traveltime="0.00">
        <stop duration="104.00" arrival="105.00" arrivalPos="5.00" actType="waiting"/>
    </personinfo>
    <personinfo id="p_651115f3b362" depart="1.00" type="DEFAULT_PEDTYPE@p_651115f3b362" speedFactor="1.00" duration="104.00" waitingTime="0.00" timeLoss="0.00" traveltime="0.00">
        <stop duration="104.00" arrival="105.00" arrivalPos="5.00" actType="waiting"/>
    </personinfo>
    <personinfo id="p_05994c795f6f" depart="1.00" type="DEFAULT_PEDTYPE@p_05994c795f6f" speedFactor="0.78" duration="104.00" waitingTime="0.00" timeLoss="0.00" traveltime="0.00">
        <stop duration="104.00" arrival="105.00" arrivalPos="5.00" actType="waiting"/>
    </personinfo>
    <personinfo id="p_ab252d5791e0" depart="1.00" type="DEFAULT_PEDTYPE@p_ab252d5791e0" speedFactor="0.79" duration="104.00" waitingTime="0.00" timeLoss="0.00" traveltime="0.00">
        <stop duration="104.00" arrival="105.00" arrivalPos="5.00" actType="waiting"/>
    </personinfo>
    <personinfo id="p_82707a37ee7f" depart="1.00" type="DEFAULT_PEDTYPE@p_82707a37ee7f" speedFactor="1.05" duration="104.00" waitingTime="0.00" timeLoss="0.00" traveltime="0.00">
        <stop duration="104.00" arrival="105.00" arrivalPos="5.00" actType="waiting"/>
    </personinfo>
    <personinfo id="p_69bf502c5bfd" depart="1.00" type="DEFAULT_PEDTYPE@p_69bf502c5bfd" speedFactor="1.11" duration="104.00" waitingTime="0.00" timeLoss="0.00" traveltime="0.00">
        <stop duration="104.00" arrival="105.00" arrivalPos="5.00" actType="waiting"/>
    </personinfo>
    <personinfo id="p_4a0e7871d3a8" depart="1.00" type="DEFAULT_PEDTYPE@p_4a0e7871d3a8" speedFactor="1.12" duration="104.00" waitingTime="0.00" timeLoss="0.00" traveltime="0.00">
        <stop duration="104.00" arrival="105.00" arrivalPos="5.00" actType="waiting"/>
    </personinfo>
    <personinfo id="p_fd7a198706a7" depart="1.00" type="DEFAULT_PEDTYPE@p_fd7a198706a7" speedFactor="0.95" duration="104.00" waitingTime="0.00" timeLoss="0.00" traveltime="0.00">
        <stop duration="104.00" arrival="105.00" arrivalPos="5.00" actType="waiting"/>
    </personinfo>
    <personinfo id="p_a48b6913df15" depart="1.00" type="DEFAULT_PEDTYPE@p_a48b6913df15" speedFactor="0.85" duration="104.00" waitingTime="0.00" timeLoss="0.00" traveltime="0.00">
        <stop duration="104.00" arrival="105.00" arrivalPos="5.00" actType="waiting"/>
    </personinfo>
    <personinfo id="p_8fb89e214470" depart="1.00" type="DEFAULT_PEDTYPE@p_8fb89e214470" speedFactor="1.17" duration="104.00" waitingTime="0.00" timeLoss="0.00" traveltime="0.00">
        <stop duration="104.00" arrival="105.00" arrivalPos="5.00" actType="waiting"/>
    </personinfo>
    <personinfo id="p_5fc8ee15b303" depart="1.00" type="DEFAULT_PEDTYPE@p_5fc8ee15b303" speedFactor="1.05" duration="104.00" waitingTime="0.00" timeLoss="0.00" traveltime="0.00">
        <stop duration="104.00" arrival="105.00" arrivalPos="5.00" actType="waiting"/>
    </personinfo>
    <personinfo id="p_ea85172ace5a" depart="1.00" type="DEFAULT_PEDTYPE@p_ea85172ace5a" speedFactor="1.01" duration="104.00" waitingTime="0.00" timeLoss="0.00" traveltime="0.00">
        <stop duration="104.00" arrival="105.00" arrivalPos="5.00" actType="waiting"/>
    </personinfo>
    <personinfo id="p_f19d35da79d9" depart="1.00" type="DEFAULT_PEDTYPE@p_f19d35da79d9" speedFactor="0.89" duration="104.00" waitingTime="0.00" timeLoss="0.00" traveltime="0.00">
        <stop duration="104.00" arrival="105.00" arrivalPos="5.00" actType="waiting"/>
    </personinfo>
    <personinfo id="p_966c366a5f80" depart="1.00" type="DEFAULT_PEDTYPE@p_966c366a5f80" speedFactor="0.90" duration="104.00" waitingTime="0.00" timeLoss="0.00" traveltime="0.00">
        <stop duration="104.00" arrival="105.00" arrivalPos="5.00" actType="waiting"/>
    </personinfo>
    <personinfo id="p_18f2d8bbbeaa" depart="1.00" type="DEFAULT_PEDTYPE@p_18f2d8bbbeaa" speedFactor="0.89" duration="104.00" waitingTime="0.00" timeLoss="0.00" traveltime="0.00">
        <stop duration="104.00" arrival="105.00" arrivalPos="5.00" actType="waiting"/>
    </personinfo>
    <personinfo id="p_181b11a6a5ce" depart="1.00" type="DEFAULT_PEDTYPE@p_181b11a6a5ce" speedFactor="1.02" duration="104.00" waitingTime="0.00" timeLoss="0.00" traveltime="0.00">
        <stop duration="104.00" arrival="105.00" arrivalPos="5.00" actType="waiting"/>
    </personinfo>
    <personinfo id="p_fc86032cb3c6" depart="1.00" type="DEFAULT_PEDTYPE@p_fc86032cb3c6" speedFactor="1.11" duration="104.00" waitingTime="0.00" timeLoss="0.00" traveltime="0.00">
        <stop duration="104.00" arrival="105.00" arrivalPos="5.00" actType="waiting"/>
    </personinfo>
    <personinfo id="p_d28ae93e91dc" depart="1.00" type="DEFAULT_PEDTYPE@p_d28ae93e91dc" speedFactor="0.90" duration="104.00" waitingTime="0.00" timeLoss="0.00" traveltime="0.00">
        <stop duration="104.00" arrival="105.00" arrivalPos="5.00" actType="waiting"/>
    </personinfo>
    <personinfo id="p_bab29c93fd46" depart="1.00" type="DEFAULT_PEDTYPE@p_bab29c93fd46" speedFactor="0.89" duration="104.00" waitingTime="0.00" timeLoss="0.00" traveltime="0.00">
        <stop duration="104.00" arrival="105.00" arrivalPos="5.00" actType="waiting"/>
    </personinfo>
    <personinfo id="p_fde3a42f30b8" depart="1.00" type="DEFAULT_PEDTYPE@p_fde3a42f30b8" speedFactor="1.05" duration="104.00" waitingTime="0.00" timeLoss="0.00" traveltime="0.00">
        <stop duration="104.00" arrival="105.00" arrivalPos="5.00" actType="waiting"/>
    </personinfo>
    <personinfo id="p_c43ccd20a9b0" depart="1.00" type="DEFAULT_PEDTYPE@p_c43ccd20a9b0" speedFactor="1.00" duration="124.00" waitingTime="0.00" timeLoss="0.00" traveltime="0.00">
        <stop duration="124.00" arrival="125.00" arrivalPos="5.00" actType="waiting"/>
    </personinfo>